<VTKFile type="UnstructuredGrid" version="1.0" byte_order="LittleEndian" header_type="UInt64">
  <UnstructuredGrid>
    <Piece NumberOfPoints="51" NumberOfCells="25">
      <PointData>
        <DataArray type="UInt64" Name="bulk_node_ids" format="ascii" RangeMin="2" RangeMax="4913">
          2 4 22 23 24 25
          26 27 28 29 30 31
          32 33 34 35 36 37
          38 39 40 41 42 43
          44 45 4889 4890 4891 4892
          4893 4894 4895 4896 4897 4898
          4899 4900 4901 4902 4903 4904
          4905 4906 4907 4908 4909 4910
          4911 4912 4913
        </DataArray>
      </PointData>
      <CellData>
        <DataArray type="Int32" Name="CellEntityIds" format="ascii" RangeMin="2" RangeMax="2">
          2 2 2 2 2 2
          2 2 2 2 2 2
          2 2 2 2 2 2
          2 2 2 2 2 2
          2
        </DataArray>
        <DataArray type="UInt64" Name="bulk_element_ids" format="ascii" RangeMin="17" RangeMax="41">
          17 18 19 20 21 22
          23 24 25 26 27 28
          29 30 31 32 33 34
          35 36 37 38 39 40
          41
        </DataArray>
      </CellData>
      <Points>
        <DataArray type="Float32" Name="Points" NumberOfComponents="3" format="ascii" RangeMin="42.5" RangeMax="104.5">
          0 42.5 0 0 104.5 0
          0 44.979999542 0 0 47.459999084 0
          0 49.939998627 0 0 52.419998169 0
          0 54.900001526 0 0 57.380001068 0
          0 59.86000061 0 0 62.340000153 0
          0 64.819999695 0 0 67.300003052 0
          0 69.779998779 0 0 72.260002136 0
          0 74.739997864 0 0 77.220001221 0
          0 79.699996948 0 0 82.180000305 0
          0 84.660003662 0 0 87.13999939 0
          0 89.620002747 0 0 92.099998474 0
          0 94.580001831 0 0 97.059997559 0
          0 99.540000916 0 0 102.01999664 0
          0 43.740001678 0 0 46.220001221 0
          0 48.700000763 0 0 51.180000305 0
          0 53.659999847 0 0 56.13999939 0
          0 58.619998932 0 0 61.099998474 0
          0 63.580001831 0 0 66.059997559 0
          0 68.540000916 0 0 71.019996643 0
          0 73.5 0 0 75.980003357 0
          0 78.459999084 0 0 80.940002441 0
          0 83.419998169 0 0 85.900001526 0
          0 88.379997253 0 0 90.86000061 0
          0 93.339996338 0 0 95.819999695 0
          0 98.300003052 0 0 100.77999878 0
          0 103.26000214 0
        </DataArray>
      </Points>
      <Cells>
        <DataArray type="Int64" Name="connectivity" format="ascii" RangeMin="0" RangeMax="50">
          0 2 26 2 3 27
          3 4 28 4 5 29
          5 6 30 6 7 31
          7 8 32 8 9 33
          9 10 34 10 11 35
          11 12 36 12 13 37
          13 14 38 14 15 39
          15 16 40 16 17 41
          17 18 42 18 19 43
          19 20 44 20 21 45
          21 22 46 22 23 47
          23 24 48 24 25 49
          25 1 50
        </DataArray>
        <DataArray type="Int64" Name="offsets" format="ascii" RangeMin="3" RangeMax="75">
          3 6 9 12 15 18
          21 24 27 30 33 36
          39 42 45 48 51 54
          57 60 63 66 69 72
          75
        </DataArray>
        <DataArray type="UInt8" Name="types" format="ascii" RangeMin="21" RangeMax="21">
          21 21 21 21 21 21
          21 21 21 21 21 21
          21 21 21 21 21 21
          21 21 21 21 21 21
          21
        </DataArray>
      </Cells>
    </Piece>
  </UnstructuredGrid>
</VTKFile>
