<VTKFile type="UnstructuredGrid" version="1.0" byte_order="LittleEndian" header_type="UInt64">
  <UnstructuredGrid>
    <Piece NumberOfPoints="85" NumberOfCells="42">
      <PointData>
        <DataArray type="UInt64" Name="bulk_node_ids" format="ascii" RangeMin="0" RangeMax="4913">
          0 2 4 6 7 8
          9 10 11 12 13 14
          15 16 17 18 19 20
          21 22 23 24 25 26
          27 28 29 30 31 32
          33 34 35 36 37 38
          39 40 41 42 43 44
          45 4872 4873 4874 4875 4876
          4877 4878 4879 4880 4881 4882
          4883 4884 4885 4886 4887 4888
          4889 4890 4891 4892 4893 4894
          4895 4896 4897 4898 4899 4900
          4901 4902 4903 4904 4905 4906
          4907 4908 4909 4910 4911 4912
          4913
        </DataArray>
      </PointData>
      <CellData>
        <DataArray type="Int32" Name="CellEntityIds" format="ascii" RangeMin="1" RangeMax="2">
          1 1 1 1 1 1
          1 1 1 1 1 1
          1 1 1 1 1 2
          2 2 2 2 2 2
          2 2 2 2 2 2
          2 2 2 2 2 2
          2 2 2 2 2 2
        </DataArray>
        <DataArray type="UInt64" Name="bulk_element_ids" format="ascii" RangeMin="0" RangeMax="41">
          0 1 2 3 4 5
          6 7 8 9 10 11
          12 13 14 15 16 17
          18 19 20 21 22 23
          24 25 26 27 28 29
          30 31 32 33 34 35
          36 37 38 39 40 41
        </DataArray>
      </CellData>
      <Points>
        <DataArray type="Float32" Name="Points" NumberOfComponents="3" format="ascii" RangeMin="0" RangeMax="104.5">
          0 0 0 0 42.5 0
          0 104.5 0 0 2.5 0
          0 5 0 0 7.5 0
          0 10 0 0 12.5 0
          0 15 0 0 17.5 0
          0 20 0 0 22.5 0
          0 25 0 0 27.5 0
          0 30 0 0 32.5 0
          0 35 0 0 37.5 0
          0 40 0 0 44.979999542 0
          0 47.459999084 0 0 49.939998627 0
          0 52.419998169 0 0 54.900001526 0
          0 57.380001068 0 0 59.86000061 0
          0 62.340000153 0 0 64.819999695 0
          0 67.300003052 0 0 69.779998779 0
          0 72.260002136 0 0 74.739997864 0
          0 77.220001221 0 0 79.699996948 0
          0 82.180000305 0 0 84.660003662 0
          0 87.13999939 0 0 89.620002747 0
          0 92.099998474 0 0 94.580001831 0
          0 97.059997559 0 0 99.540000916 0
          0 102.01999664 0 0 1.25 0
          0 3.75 0 0 6.25 0
          0 8.75 0 0 11.25 0
          0 13.75 0 0 16.25 0
          0 18.75 0 0 21.25 0
          0 23.75 0 0 26.25 0
          0 28.75 0 0 31.25 0
          0 33.75 0 0 36.25 0
          0 38.75 0 0 41.25 0
          0 43.740001678 0 0 46.220001221 0
          0 48.700000763 0 0 51.180000305 0
          0 53.659999847 0 0 56.13999939 0
          0 58.619998932 0 0 61.099998474 0
          0 63.580001831 0 0 66.059997559 0
          0 68.540000916 0 0 71.019996643 0
          0 73.5 0 0 75.980003357 0
          0 78.459999084 0 0 80.940002441 0
          0 83.419998169 0 0 85.900001526 0
          0 88.379997253 0 0 90.86000061 0
          0 93.339996338 0 0 95.819999695 0
          0 98.300003052 0 0 100.77999878 0
          0 103.26000214 0
        </DataArray>
      </Points>
      <Cells>
        <DataArray type="Int64" Name="connectivity" format="ascii" RangeMin="0" RangeMax="84">
          0 3 43 3 4 44
          4 5 45 5 6 46
          6 7 47 7 8 48
          8 9 49 9 10 50
          10 11 51 11 12 52
          12 13 53 13 14 54
          14 15 55 15 16 56
          16 17 57 17 18 58
          18 1 59 1 19 60
          19 20 61 20 21 62
          21 22 63 22 23 64
          23 24 65 24 25 66
          25 26 67 26 27 68
          27 28 69 28 29 70
          29 30 71 30 31 72
          31 32 73 32 33 74
          33 34 75 34 35 76
          35 36 77 36 37 78
          37 38 79 38 39 80
          39 40 81 40 41 82
          41 42 83 42 2 84
        </DataArray>
        <DataArray type="Int64" Name="offsets" format="ascii" RangeMin="3" RangeMax="126">
          3 6 9 12 15 18
          21 24 27 30 33 36
          39 42 45 48 51 54
          57 60 63 66 69 72
          75 78 81 84 87 90
          93 96 99 102 105 108
          111 114 117 120 123 126
        </DataArray>
        <DataArray type="UInt8" Name="types" format="ascii" RangeMin="21" RangeMax="21">
          21 21 21 21 21 21
          21 21 21 21 21 21
          21 21 21 21 21 21
          21 21 21 21 21 21
          21 21 21 21 21 21
          21 21 21 21 21 21
          21 21 21 21 21 21
        </DataArray>
      </Cells>
    </Piece>
  </UnstructuredGrid>
</VTKFile>
