<VTKFile type="UnstructuredGrid" version="1.0" byte_order="LittleEndian" header_type="UInt64">
  <UnstructuredGrid>
    <Piece NumberOfPoints="85" NumberOfCells="42">
      <PointData>
        <DataArray type="UInt64" Name="bulk_node_ids" format="ascii" RangeMin="1" RangeMax="19208">
          1 3 5 141 142 143
          144 145 146 147 148 149
          150 151 152 153 154 155
          156 157 158 159 160 161
          162 163 164 165 166 167
          168 169 170 171 172 173
          174 175 176 177 178 179
          180 19167 19168 19169 19170 19171
          19172 19173 19174 19175 19176 19177
          19178 19179 19180 19181 19182 19183
          19184 19185 19186 19187 19188 19189
          19190 19191 19192 19193 19194 19195
          19196 19197 19198 19199 19200 19201
          19202 19203 19204 19205 19206 19207
          19208
        </DataArray>
      </PointData>
      <CellData>
        <DataArray type="Int32" Name="CellEntityIds" format="ascii" RangeMin="4" RangeMax="5">
          4 4 4 4 4 4
          4 4 4 4 4 4
          4 4 4 4 4 4
          4 4 4 4 4 4
          4 5 5 5 5 5
          5 5 5 5 5 5
          5 5 5 5 5 5
        </DataArray>
        <DataArray type="UInt64" Name="bulk_element_ids" format="ascii" RangeMin="138" RangeMax="179">
          138 139 140 141 142 143
          144 145 146 147 148 149
          150 151 152 153 154 155
          156 157 158 159 160 161
          162 163 164 165 166 167
          168 169 170 171 172 173
          174 175 176 177 178 179
        </DataArray>
      </CellData>
      <Points>
        <DataArray type="Float32" Name="Points" NumberOfComponents="3" format="ascii" RangeMin="240" RangeMax="261.76372934">
          240 0 0 240 42.5 0
          240 104.5 0 240 102.01999664 0
          240 99.540000916 0 240 97.059997559 0
          240 94.580001831 0 240 92.099998474 0
          240 89.620002747 0 240 87.13999939 0
          240 84.660003662 0 240 82.180000305 0
          240 79.699996948 0 240 77.220001221 0
          240 74.739997864 0 240 72.260002136 0
          240 69.779998779 0 240 67.300003052 0
          240 64.819999695 0 240 62.340000153 0
          240 59.86000061 0 240 57.380001068 0
          240 54.900001526 0 240 52.419998169 0
          240 49.939998627 0 240 47.459999084 0
          240 44.979999542 0 240 40 0
          240 37.5 0 240 35 0
          240 32.5 0 240 30 0
          240 27.5 0 240 25 0
          240 22.5 0 240 20 0
          240 17.5 0 240 15 0
          240 12.5 0 240 10 0
          240 7.5 0 240 5 0
          240 2.5 0 240 1.25 0
          240 3.75 0 240 6.25 0
          240 8.75 0 240 11.25 0
          240 13.75 0 240 16.25 0
          240 18.75 0 240 21.25 0
          240 23.75 0 240 26.25 0
          240 28.75 0 240 31.25 0
          240 33.75 0 240 36.25 0
          240 38.75 0 240 41.25 0
          240 43.740001678 0 240 46.220001221 0
          240 48.700000763 0 240 51.180000305 0
          240 53.659999847 0 240 56.13999939 0
          240 58.619998932 0 240 61.099998474 0
          240 63.580001831 0 240 66.059997559 0
          240 68.540000916 0 240 71.019996643 0
          240 73.5 0 240 75.980003357 0
          240 78.459999084 0 240 80.940002441 0
          240 83.419998169 0 240 85.900001526 0
          240 88.379997253 0 240 90.86000061 0
          240 93.339996338 0 240 95.819999695 0
          240 98.300003052 0 240 100.77999878 0
          240 103.26000214 0
        </DataArray>
      </Points>
      <Cells>
        <DataArray type="Int64" Name="connectivity" format="ascii" RangeMin="0" RangeMax="84">
          2 3 84 3 4 83
          4 5 82 5 6 81
          6 7 80 7 8 79
          8 9 78 9 10 77
          10 11 76 11 12 75
          12 13 74 13 14 73
          14 15 72 15 16 71
          16 17 70 17 18 69
          18 19 68 19 20 67
          20 21 66 21 22 65
          22 23 64 23 24 63
          24 25 62 25 26 61
          26 1 60 1 27 59
          27 28 58 28 29 57
          29 30 56 30 31 55
          31 32 54 32 33 53
          33 34 52 34 35 51
          35 36 50 36 37 49
          37 38 48 38 39 47
          39 40 46 40 41 45
          41 42 44 42 0 43
        </DataArray>
        <DataArray type="Int64" Name="offsets" format="ascii" RangeMin="3" RangeMax="126">
          3 6 9 12 15 18
          21 24 27 30 33 36
          39 42 45 48 51 54
          57 60 63 66 69 72
          75 78 81 84 87 90
          93 96 99 102 105 108
          111 114 117 120 123 126
        </DataArray>
        <DataArray type="UInt8" Name="types" format="ascii" RangeMin="21" RangeMax="21">
          21 21 21 21 21 21
          21 21 21 21 21 21
          21 21 21 21 21 21
          21 21 21 21 21 21
          21 21 21 21 21 21
          21 21 21 21 21 21
          21 21 21 21 21 21
        </DataArray>
      </Cells>
    </Piece>
  </UnstructuredGrid>
</VTKFile>
