<VTKFile type="UnstructuredGrid" version="1.0" byte_order="LittleEndian" header_type="UInt64">
  <UnstructuredGrid>
    <Piece NumberOfPoints="193" NumberOfCells="96">
      <PointData>
        <DataArray type="UInt64" Name="bulk_node_ids" format="ascii" RangeMin="4" RangeMax="19084">
          4 5 46 47 48 49
          50 51 52 53 54 55
          56 57 58 59 60 61
          62 63 64 65 66 67
          68 69 70 71 72 73
          74 75 76 77 78 79
          80 81 82 83 84 85
          86 87 88 89 90 91
          92 93 94 95 96 97
          98 99 100 101 102 103
          104 105 106 107 108 109
          110 111 112 113 114 115
          116 117 118 119 120 121
          122 123 124 125 126 127
          128 129 130 131 132 133
          134 135 136 137 138 139
          140 4998 5130 5281 5437 5580
          5723 5888 6035 6180 6326 6481
          6624 6769 6940 7080 7222 7378
          7520 7663 7828 7973 8114 8255
          8412 8555 8699 8866 9007 9150
          9306 9449 9591 9754 9903 10047
          10187 10343 10486 10631 10797 10939
          11081 11237 11380 11522 11687 11829
          11970 12124 12271 12415 12561 12725
          12866 13008 13165 13308 13449 13615
          13759 13900 14054 14197 14338 14482
          14647 14790 14932 15088 15234 15377
          15542 15684 15827 15982 16122 16262
          16409 16572 16714 16859 17016 17157
          17297 17467 17609 17751 17906 18053
          18196 18362 18504 18646 18791 18946
          19084
        </DataArray>
      </PointData>
      <CellData>
        <DataArray type="Int32" Name="CellEntityIds" format="ascii" RangeMin="3" RangeMax="3">
          3 3 3 3 3 3
          3 3 3 3 3 3
          3 3 3 3 3 3
          3 3 3 3 3 3
          3 3 3 3 3 3
          3 3 3 3 3 3
          3 3 3 3 3 3
          3 3 3 3 3 3
          3 3 3 3 3 3
          3 3 3 3 3 3
          3 3 3 3 3 3
          3 3 3 3 3 3
          3 3 3 3 3 3
          3 3 3 3 3 3
          3 3 3 3 3 3
          3 3 3 3 3 3
        </DataArray>
        <DataArray type="UInt64" Name="bulk_element_ids" format="ascii" RangeMin="42" RangeMax="137">
          42 43 44 45 46 47
          48 49 50 51 52 53
          54 55 56 57 58 59
          60 61 62 63 64 65
          66 67 68 69 70 71
          72 73 74 75 76 77
          78 79 80 81 82 83
          84 85 86 87 88 89
          90 91 92 93 94 95
          96 97 98 99 100 101
          102 103 104 105 106 107
          108 109 110 111 112 113
          114 115 116 117 118 119
          120 121 122 123 124 125
          126 127 128 129 130 131
          132 133 134 135 136 137
        </DataArray>
      </CellData>
      <Points>
        <DataArray type="Float32" Name="Points" NumberOfComponents="3" format="ascii" RangeMin="104.5" RangeMax="261.76372934">
          0 104.5 0 240 104.5 0
          2.5 104.5 0 5 104.5 0
          7.5 104.5 0 10 104.5 0
          12.5 104.5 0 15 104.5 0
          17.5 104.5 0 20 104.5 0
          22.5 104.5 0 25 104.5 0
          27.5 104.5 0 30 104.5 0
          32.5 104.5 0 35 104.5 0
          37.5 104.5 0 40 104.5 0
          42.5 104.5 0 45 104.5 0
          47.5 104.5 0 50 104.5 0
          52.5 104.5 0 55 104.5 0
          57.5 104.5 0 60 104.5 0
          62.5 104.5 0 65 104.5 0
          67.5 104.5 0 70 104.5 0
          72.5 104.5 0 75 104.5 0
          77.5 104.5 0 80 104.5 0
          82.5 104.5 0 85 104.5 0
          87.5 104.5 0 90 104.5 0
          92.5 104.5 0 95 104.5 0
          97.5 104.5 0 100 104.5 0
          102.5 104.5 0 105 104.5 0
          107.5 104.5 0 110 104.5 0
          112.5 104.5 0 115 104.5 0
          117.5 104.5 0 120 104.5 0
          122.5 104.5 0 125 104.5 0
          127.5 104.5 0 130 104.5 0
          132.5 104.5 0 135 104.5 0
          137.5 104.5 0 140 104.5 0
          142.5 104.5 0 145 104.5 0
          147.5 104.5 0 150 104.5 0
          152.5 104.5 0 155 104.5 0
          157.5 104.5 0 160 104.5 0
          162.5 104.5 0 165 104.5 0
          167.5 104.5 0 170 104.5 0
          172.5 104.5 0 175 104.5 0
          177.5 104.5 0 180 104.5 0
          182.5 104.5 0 185 104.5 0
          187.5 104.5 0 190 104.5 0
          192.5 104.5 0 195 104.5 0
          197.5 104.5 0 200 104.5 0
          202.5 104.5 0 205 104.5 0
          207.5 104.5 0 210 104.5 0
          212.5 104.5 0 215 104.5 0
          217.5 104.5 0 220 104.5 0
          222.5 104.5 0 225 104.5 0
          227.5 104.5 0 230 104.5 0
          232.5 104.5 0 235 104.5 0
          237.5 104.5 0 1.25 104.5 0
          3.75 104.5 0 6.25 104.5 0
          8.75 104.5 0 11.25 104.5 0
          13.75 104.5 0 16.25 104.5 0
          18.75 104.5 0 21.25 104.5 0
          23.75 104.5 0 26.25 104.5 0
          28.75 104.5 0 31.25 104.5 0
          33.75 104.5 0 36.25 104.5 0
          38.75 104.5 0 41.25 104.5 0
          43.75 104.5 0 46.25 104.5 0
          48.75 104.5 0 51.25 104.5 0
          53.75 104.5 0 56.25 104.5 0
          58.75 104.5 0 61.25 104.5 0
          63.75 104.5 0 66.25 104.5 0
          68.75 104.5 0 71.25 104.5 0
          73.75 104.5 0 76.25 104.5 0
          78.75 104.5 0 81.25 104.5 0
          83.75 104.5 0 86.25 104.5 0
          88.75 104.5 0 91.25 104.5 0
          93.75 104.5 0 96.25 104.5 0
          98.75 104.5 0 101.25 104.5 0
          103.75 104.5 0 106.25 104.5 0
          108.75 104.5 0 111.25 104.5 0
          113.75 104.5 0 116.25 104.5 0
          118.75 104.5 0 121.25 104.5 0
          123.75 104.5 0 126.25 104.5 0
          128.75 104.5 0 131.25 104.5 0
          133.75 104.5 0 136.25 104.5 0
          138.75 104.5 0 141.25 104.5 0
          143.75 104.5 0 146.25 104.5 0
          148.75 104.5 0 151.25 104.5 0
          153.75 104.5 0 156.25 104.5 0
          158.75 104.5 0 161.25 104.5 0
          163.75 104.5 0 166.25 104.5 0
          168.75 104.5 0 171.25 104.5 0
          173.75 104.5 0 176.25 104.5 0
          178.75 104.5 0 181.25 104.5 0
          183.75 104.5 0 186.25 104.5 0
          188.75 104.5 0 191.25 104.5 0
          193.75 104.5 0 196.25 104.5 0
          198.75 104.5 0 201.25 104.5 0
          203.75 104.5 0 206.25 104.5 0
          208.75 104.5 0 211.25 104.5 0
          213.75 104.5 0 216.25 104.5 0
          218.75 104.5 0 221.25 104.5 0
          223.75 104.5 0 226.25 104.5 0
          228.75 104.5 0 231.25 104.5 0
          233.75 104.5 0 236.25 104.5 0
          238.75 104.5 0
        </DataArray>
      </Points>
      <Cells>
        <DataArray type="Int64" Name="connectivity" format="ascii" RangeMin="0" RangeMax="192">
          0 2 97 2 3 98
          3 4 99 4 5 100
          5 6 101 6 7 102
          7 8 103 8 9 104
          9 10 105 10 11 106
          11 12 107 12 13 108
          13 14 109 14 15 110
          15 16 111 16 17 112
          17 18 113 18 19 114
          19 20 115 20 21 116
          21 22 117 22 23 118
          23 24 119 24 25 120
          25 26 121 26 27 122
          27 28 123 28 29 124
          29 30 125 30 31 126
          31 32 127 32 33 128
          33 34 129 34 35 130
          35 36 131 36 37 132
          37 38 133 38 39 134
          39 40 135 40 41 136
          41 42 137 42 43 138
          43 44 139 44 45 140
          45 46 141 46 47 142
          47 48 143 48 49 144
          49 50 145 50 51 146
          51 52 147 52 53 148
          53 54 149 54 55 150
          55 56 151 56 57 152
          57 58 153 58 59 154
          59 60 155 60 61 156
          61 62 157 62 63 158
          63 64 159 64 65 160
          65 66 161 66 67 162
          67 68 163 68 69 164
          69 70 165 70 71 166
          71 72 167 72 73 168
          73 74 169 74 75 170
          75 76 171 76 77 172
          77 78 173 78 79 174
          79 80 175 80 81 176
          81 82 177 82 83 178
          83 84 179 84 85 180
          85 86 181 86 87 182
          87 88 183 88 89 184
          89 90 185 90 91 186
          91 92 187 92 93 188
          93 94 189 94 95 190
          95 96 191 96 1 192
        </DataArray>
        <DataArray type="Int64" Name="offsets" format="ascii" RangeMin="3" RangeMax="288">
          3 6 9 12 15 18
          21 24 27 30 33 36
          39 42 45 48 51 54
          57 60 63 66 69 72
          75 78 81 84 87 90
          93 96 99 102 105 108
          111 114 117 120 123 126
          129 132 135 138 141 144
          147 150 153 156 159 162
          165 168 171 174 177 180
          183 186 189 192 195 198
          201 204 207 210 213 216
          219 222 225 228 231 234
          237 240 243 246 249 252
          255 258 261 264 267 270
          273 276 279 282 285 288
        </DataArray>
        <DataArray type="UInt8" Name="types" format="ascii" RangeMin="21" RangeMax="21">
          21 21 21 21 21 21
          21 21 21 21 21 21
          21 21 21 21 21 21
          21 21 21 21 21 21
          21 21 21 21 21 21
          21 21 21 21 21 21
          21 21 21 21 21 21
          21 21 21 21 21 21
          21 21 21 21 21 21
          21 21 21 21 21 21
          21 21 21 21 21 21
          21 21 21 21 21 21
          21 21 21 21 21 21
          21 21 21 21 21 21
          21 21 21 21 21 21
          21 21 21 21 21 21
        </DataArray>
      </Cells>
    </Piece>
  </UnstructuredGrid>
</VTKFile>
