<VTKFile type="UnstructuredGrid" version="1.0" byte_order="LittleEndian" header_type="UInt64">
  <UnstructuredGrid>
    <Piece NumberOfPoints="193" NumberOfCells="96">
      <PointData>
        <DataArray type="UInt64" Name="bulk_node_ids" format="ascii" RangeMin="0" RangeMax="19082">
          0 1 181 182 183 184
          185 186 187 188 189 190
          191 192 193 194 195 196
          197 198 199 200 201 202
          203 204 205 206 207 208
          209 210 211 212 213 214
          215 216 217 218 219 220
          221 222 223 224 225 226
          227 228 229 230 231 232
          233 234 235 236 237 238
          239 240 241 242 243 244
          245 246 247 248 249 250
          251 252 253 254 255 256
          257 258 259 260 261 262
          263 264 265 266 267 268
          269 270 271 272 273 274
          275 4996 5128 5279 5435 5578
          5720 5885 6032 6177 6323 6479
          6622 6767 6938 7078 7220 7376
          7518 7661 7826 7971 8112 8253
          8409 8552 8697 8864 9005 9147
          9303 9446 9588 9752 9901 10045
          10185 10341 10484 10629 10795 10937
          11079 11235 11378 11520 11685 11827
          11968 12122 12268 12412 12559 12723
          12863 13005 13162 13305 13446 13612
          13757 13898 14052 14195 14336 14479
          14644 14787 14929 15085 15231 15375
          15540 15681 15824 15980 16120 16260
          16407 16570 16712 16857 17014 17155
          17295 17465 17607 17749 17904 18051
          18194 18360 18502 18644 18789 18944
          19082
        </DataArray>
      </PointData>
      <CellData>
        <DataArray type="Int32" Name="CellEntityIds" format="ascii" RangeMin="6" RangeMax="6">
          6 6 6 6 6 6
          6 6 6 6 6 6
          6 6 6 6 6 6
          6 6 6 6 6 6
          6 6 6 6 6 6
          6 6 6 6 6 6
          6 6 6 6 6 6
          6 6 6 6 6 6
          6 6 6 6 6 6
          6 6 6 6 6 6
          6 6 6 6 6 6
          6 6 6 6 6 6
          6 6 6 6 6 6
          6 6 6 6 6 6
          6 6 6 6 6 6
          6 6 6 6 6 6
        </DataArray>
        <DataArray type="UInt64" Name="bulk_element_ids" format="ascii" RangeMin="180" RangeMax="275">
          180 181 182 183 184 185
          186 187 188 189 190 191
          192 193 194 195 196 197
          198 199 200 201 202 203
          204 205 206 207 208 209
          210 211 212 213 214 215
          216 217 218 219 220 221
          222 223 224 225 226 227
          228 229 230 231 232 233
          234 235 236 237 238 239
          240 241 242 243 244 245
          246 247 248 249 250 251
          252 253 254 255 256 257
          258 259 260 261 262 263
          264 265 266 267 268 269
          270 271 272 273 274 275
        </DataArray>
      </CellData>
      <Points>
        <DataArray type="Float32" Name="Points" NumberOfComponents="3" format="ascii" RangeMin="0" RangeMax="240">
          0 0 0 240 0 0
          237.5 0 0 235 0 0
          232.5 0 0 230 0 0
          227.5 0 0 225 0 0
          222.5 0 0 220 0 0
          217.5 0 0 215 0 0
          212.5 0 0 210 0 0
          207.5 0 0 205 0 0
          202.5 0 0 200 0 0
          197.5 0 0 195 0 0
          192.5 0 0 190 0 0
          187.5 0 0 185 0 0
          182.5 0 0 180 0 0
          177.5 0 0 175 0 0
          172.5 0 0 170 0 0
          167.5 0 0 165 0 0
          162.5 0 0 160 0 0
          157.5 0 0 155 0 0
          152.5 0 0 150 0 0
          147.5 0 0 145 0 0
          142.5 0 0 140 0 0
          137.5 0 0 135 0 0
          132.5 0 0 130 0 0
          127.5 0 0 125 0 0
          122.5 0 0 120 0 0
          117.5 0 0 115 0 0
          112.5 0 0 110 0 0
          107.5 0 0 105 0 0
          102.5 0 0 100 0 0
          97.5 0 0 95 0 0
          92.5 0 0 90 0 0
          87.5 0 0 85 0 0
          82.5 0 0 80 0 0
          77.5 0 0 75 0 0
          72.5 0 0 70 0 0
          67.5 0 0 65 0 0
          62.5 0 0 60 0 0
          57.5 0 0 55 0 0
          52.5 0 0 50 0 0
          47.5 0 0 45 0 0
          42.5 0 0 40 0 0
          37.5 0 0 35 0 0
          32.5 0 0 30 0 0
          27.5 0 0 25 0 0
          22.5 0 0 20 0 0
          17.5 0 0 15 0 0
          12.5 0 0 10 0 0
          7.5 0 0 5 0 0
          2.5 0 0 1.25 0 0
          3.75 0 0 6.25 0 0
          8.75 0 0 11.25 0 0
          13.75 0 0 16.25 0 0
          18.75 0 0 21.25 0 0
          23.75 0 0 26.25 0 0
          28.75 0 0 31.25 0 0
          33.75 0 0 36.25 0 0
          38.75 0 0 41.25 0 0
          43.75 0 0 46.25 0 0
          48.75 0 0 51.25 0 0
          53.75 0 0 56.25 0 0
          58.75 0 0 61.25 0 0
          63.75 0 0 66.25 0 0
          68.75 0 0 71.25 0 0
          73.75 0 0 76.25 0 0
          78.75 0 0 81.25 0 0
          83.75 0 0 86.25 0 0
          88.75 0 0 91.25 0 0
          93.75 0 0 96.25 0 0
          98.75 0 0 101.25 0 0
          103.75 0 0 106.25 0 0
          108.75 0 0 111.25 0 0
          113.75 0 0 116.25 0 0
          118.75 0 0 121.25 0 0
          123.75 0 0 126.25 0 0
          128.75 0 0 131.25 0 0
          133.75 0 0 136.25 0 0
          138.75 0 0 141.25 0 0
          143.75 0 0 146.25 0 0
          148.75 0 0 151.25 0 0
          153.75 0 0 156.25 0 0
          158.75 0 0 161.25 0 0
          163.75 0 0 166.25 0 0
          168.75 0 0 171.25 0 0
          173.75 0 0 176.25 0 0
          178.75 0 0 181.25 0 0
          183.75 0 0 186.25 0 0
          188.75 0 0 191.25 0 0
          193.75 0 0 196.25 0 0
          198.75 0 0 201.25 0 0
          203.75 0 0 206.25 0 0
          208.75 0 0 211.25 0 0
          213.75 0 0 216.25 0 0
          218.75 0 0 221.25 0 0
          223.75 0 0 226.25 0 0
          228.75 0 0 231.25 0 0
          233.75 0 0 236.25 0 0
          238.75 0 0
        </DataArray>
      </Points>
      <Cells>
        <DataArray type="Int64" Name="connectivity" format="ascii" RangeMin="0" RangeMax="192">
          1 2 192 2 3 191
          3 4 190 4 5 189
          5 6 188 6 7 187
          7 8 186 8 9 185
          9 10 184 10 11 183
          11 12 182 12 13 181
          13 14 180 14 15 179
          15 16 178 16 17 177
          17 18 176 18 19 175
          19 20 174 20 21 173
          21 22 172 22 23 171
          23 24 170 24 25 169
          25 26 168 26 27 167
          27 28 166 28 29 165
          29 30 164 30 31 163
          31 32 162 32 33 161
          33 34 160 34 35 159
          35 36 158 36 37 157
          37 38 156 38 39 155
          39 40 154 40 41 153
          41 42 152 42 43 151
          43 44 150 44 45 149
          45 46 148 46 47 147
          47 48 146 48 49 145
          49 50 144 50 51 143
          51 52 142 52 53 141
          53 54 140 54 55 139
          55 56 138 56 57 137
          57 58 136 58 59 135
          59 60 134 60 61 133
          61 62 132 62 63 131
          63 64 130 64 65 129
          65 66 128 66 67 127
          67 68 126 68 69 125
          69 70 124 70 71 123
          71 72 122 72 73 121
          73 74 120 74 75 119
          75 76 118 76 77 117
          77 78 116 78 79 115
          79 80 114 80 81 113
          81 82 112 82 83 111
          83 84 110 84 85 109
          85 86 108 86 87 107
          87 88 106 88 89 105
          89 90 104 90 91 103
          91 92 102 92 93 101
          93 94 100 94 95 99
          95 96 98 96 0 97
        </DataArray>
        <DataArray type="Int64" Name="offsets" format="ascii" RangeMin="3" RangeMax="288">
          3 6 9 12 15 18
          21 24 27 30 33 36
          39 42 45 48 51 54
          57 60 63 66 69 72
          75 78 81 84 87 90
          93 96 99 102 105 108
          111 114 117 120 123 126
          129 132 135 138 141 144
          147 150 153 156 159 162
          165 168 171 174 177 180
          183 186 189 192 195 198
          201 204 207 210 213 216
          219 222 225 228 231 234
          237 240 243 246 249 252
          255 258 261 264 267 270
          273 276 279 282 285 288
        </DataArray>
        <DataArray type="UInt8" Name="types" format="ascii" RangeMin="21" RangeMax="21">
          21 21 21 21 21 21
          21 21 21 21 21 21
          21 21 21 21 21 21
          21 21 21 21 21 21
          21 21 21 21 21 21
          21 21 21 21 21 21
          21 21 21 21 21 21
          21 21 21 21 21 21
          21 21 21 21 21 21
          21 21 21 21 21 21
          21 21 21 21 21 21
          21 21 21 21 21 21
          21 21 21 21 21 21
          21 21 21 21 21 21
          21 21 21 21 21 21
          21 21 21 21 21 21
        </DataArray>
      </Cells>
    </Piece>
  </UnstructuredGrid>
</VTKFile>
