<VTKFile type="UnstructuredGrid" version="1.0" byte_order="LittleEndian" header_type="UInt64">
  <UnstructuredGrid>
    <Piece NumberOfPoints="35" NumberOfCells="17">
      <PointData>
        <DataArray type="UInt64" Name="bulk_node_ids" format="ascii" RangeMin="0" RangeMax="4888">
          0 2 6 7 8 9
          10 11 12 13 14 15
          16 17 18 19 20 21
          4872 4873 4874 4875 4876 4877
          4878 4879 4880 4881 4882 4883
          4884 4885 4886 4887 4888
        </DataArray>
      </PointData>
      <CellData>
        <DataArray type="Int32" Name="CellEntityIds" format="ascii" RangeMin="1" RangeMax="1">
          1 1 1 1 1 1
          1 1 1 1 1 1
          1 1 1 1 1
        </DataArray>
        <DataArray type="UInt64" Name="bulk_element_ids" format="ascii" RangeMin="0" RangeMax="16">
          0 1 2 3 4 5
          6 7 8 9 10 11
          12 13 14 15 16
        </DataArray>
      </CellData>
      <Points>
        <DataArray type="Float32" Name="Points" NumberOfComponents="3" format="ascii" RangeMin="0" RangeMax="42.5">
          0 0 0 0 42.5 0
          0 2.5 0 0 5 0
          0 7.5 0 0 10 0
          0 12.5 0 0 15 0
          0 17.5 0 0 20 0
          0 22.5 0 0 25 0
          0 27.5 0 0 30 0
          0 32.5 0 0 35 0
          0 37.5 0 0 40 0
          0 1.25 0 0 3.75 0
          0 6.25 0 0 8.75 0
          0 11.25 0 0 13.75 0
          0 16.25 0 0 18.75 0
          0 21.25 0 0 23.75 0
          0 26.25 0 0 28.75 0
          0 31.25 0 0 33.75 0
          0 36.25 0 0 38.75 0
          0 41.25 0
        </DataArray>
      </Points>
      <Cells>
        <DataArray type="Int64" Name="connectivity" format="ascii" RangeMin="0" RangeMax="34">
          0 2 18 2 3 19
          3 4 20 4 5 21
          5 6 22 6 7 23
          7 8 24 8 9 25
          9 10 26 10 11 27
          11 12 28 12 13 29
          13 14 30 14 15 31
          15 16 32 16 17 33
          17 1 34
        </DataArray>
        <DataArray type="Int64" Name="offsets" format="ascii" RangeMin="3" RangeMax="51">
          3 6 9 12 15 18
          21 24 27 30 33 36
          39 42 45 48 51
        </DataArray>
        <DataArray type="UInt8" Name="types" format="ascii" RangeMin="21" RangeMax="21">
          21 21 21 21 21 21
          21 21 21 21 21 21
          21 21 21 21 21
        </DataArray>
      </Cells>
    </Piece>
  </UnstructuredGrid>
</VTKFile>
