<VTKFile type="UnstructuredGrid" version="1.0" byte_order="LittleEndian" header_type="UInt64">
  <UnstructuredGrid>
    <Piece NumberOfPoints="35" NumberOfCells="17">
      <PointData>
        <DataArray type="UInt64" Name="bulk_node_ids" format="ascii" RangeMin="1" RangeMax="19183">
          1 3 165 166 167 168
          169 170 171 172 173 174
          175 176 177 178 179 180
          19167 19168 19169 19170 19171 19172
          19173 19174 19175 19176 19177 19178
          19179 19180 19181 19182 19183
        </DataArray>
      </PointData>
      <CellData>
        <DataArray type="Int32" Name="CellEntityIds" format="ascii" RangeMin="5" RangeMax="5">
          5 5 5 5 5 5
          5 5 5 5 5 5
          5 5 5 5 5
        </DataArray>
        <DataArray type="UInt64" Name="bulk_element_ids" format="ascii" RangeMin="163" RangeMax="179">
          163 164 165 166 167 168
          169 170 171 172 173 174
          175 176 177 178 179
        </DataArray>
      </CellData>
      <Points>
        <DataArray type="Float32" Name="Points" NumberOfComponents="3" format="ascii" RangeMin="240" RangeMax="243.73397383">
          240 0 0 240 42.5 0
          240 40 0 240 37.5 0
          240 35 0 240 32.5 0
          240 30 0 240 27.5 0
          240 25 0 240 22.5 0
          240 20 0 240 17.5 0
          240 15 0 240 12.5 0
          240 10 0 240 7.5 0
          240 5 0 240 2.5 0
          240 1.25 0 240 3.75 0
          240 6.25 0 240 8.75 0
          240 11.25 0 240 13.75 0
          240 16.25 0 240 18.75 0
          240 21.25 0 240 23.75 0
          240 26.25 0 240 28.75 0
          240 31.25 0 240 33.75 0
          240 36.25 0 240 38.75 0
          240 41.25 0
        </DataArray>
      </Points>
      <Cells>
        <DataArray type="Int64" Name="connectivity" format="ascii" RangeMin="0" RangeMax="34">
          1 2 34 2 3 33
          3 4 32 4 5 31
          5 6 30 6 7 29
          7 8 28 8 9 27
          9 10 26 10 11 25
          11 12 24 12 13 23
          13 14 22 14 15 21
          15 16 20 16 17 19
          17 0 18
        </DataArray>
        <DataArray type="Int64" Name="offsets" format="ascii" RangeMin="3" RangeMax="51">
          3 6 9 12 15 18
          21 24 27 30 33 36
          39 42 45 48 51
        </DataArray>
        <DataArray type="UInt8" Name="types" format="ascii" RangeMin="21" RangeMax="21">
          21 21 21 21 21 21
          21 21 21 21 21 21
          21 21 21 21 21
        </DataArray>
      </Cells>
    </Piece>
  </UnstructuredGrid>
</VTKFile>
