<VTKFile type="UnstructuredGrid" version="1.0" byte_order="LittleEndian" header_type="UInt64">
  <UnstructuredGrid>
    <Piece NumberOfPoints="51" NumberOfCells="25">
      <PointData>
        <DataArray type="UInt64" Name="bulk_node_ids" format="ascii" RangeMin="3" RangeMax="19208">
          3 5 141 142 143 144
          145 146 147 148 149 150
          151 152 153 154 155 156
          157 158 159 160 161 162
          163 164 19184 19185 19186 19187
          19188 19189 19190 19191 19192 19193
          19194 19195 19196 19197 19198 19199
          19200 19201 19202 19203 19204 19205
          19206 19207 19208
        </DataArray>
      </PointData>
      <CellData>
        <DataArray type="Int32" Name="CellEntityIds" format="ascii" RangeMin="4" RangeMax="4">
          4 4 4 4 4 4
          4 4 4 4 4 4
          4 4 4 4 4 4
          4 4 4 4 4 4
          4
        </DataArray>
        <DataArray type="UInt64" Name="bulk_element_ids" format="ascii" RangeMin="138" RangeMax="162">
          138 139 140 141 142 143
          144 145 146 147 148 149
          150 151 152 153 154 155
          156 157 158 159 160 161
          162
        </DataArray>
      </CellData>
      <Points>
        <DataArray type="Float32" Name="Points" NumberOfComponents="3" format="ascii" RangeMin="243.73397383" RangeMax="261.76372934">
          240 42.5 0 240 104.5 0
          240 102.01999664 0 240 99.540000916 0
          240 97.059997559 0 240 94.580001831 0
          240 92.099998474 0 240 89.620002747 0
          240 87.13999939 0 240 84.660003662 0
          240 82.180000305 0 240 79.699996948 0
          240 77.220001221 0 240 74.739997864 0
          240 72.260002136 0 240 69.779998779 0
          240 67.300003052 0 240 64.819999695 0
          240 62.340000153 0 240 59.86000061 0
          240 57.380001068 0 240 54.900001526 0
          240 52.419998169 0 240 49.939998627 0
          240 47.459999084 0 240 44.979999542 0
          240 43.740001678 0 240 46.220001221 0
          240 48.700000763 0 240 51.180000305 0
          240 53.659999847 0 240 56.13999939 0
          240 58.619998932 0 240 61.099998474 0
          240 63.580001831 0 240 66.059997559 0
          240 68.540000916 0 240 71.019996643 0
          240 73.5 0 240 75.980003357 0
          240 78.459999084 0 240 80.940002441 0
          240 83.419998169 0 240 85.900001526 0
          240 88.379997253 0 240 90.86000061 0
          240 93.339996338 0 240 95.819999695 0
          240 98.300003052 0 240 100.77999878 0
          240 103.26000214 0
        </DataArray>
      </Points>
      <Cells>
        <DataArray type="Int64" Name="connectivity" format="ascii" RangeMin="0" RangeMax="50">
          1 2 50 2 3 49
          3 4 48 4 5 47
          5 6 46 6 7 45
          7 8 44 8 9 43
          9 10 42 10 11 41
          11 12 40 12 13 39
          13 14 38 14 15 37
          15 16 36 16 17 35
          17 18 34 18 19 33
          19 20 32 20 21 31
          21 22 30 22 23 29
          23 24 28 24 25 27
          25 0 26
        </DataArray>
        <DataArray type="Int64" Name="offsets" format="ascii" RangeMin="3" RangeMax="75">
          3 6 9 12 15 18
          21 24 27 30 33 36
          39 42 45 48 51 54
          57 60 63 66 69 72
          75
        </DataArray>
        <DataArray type="UInt8" Name="types" format="ascii" RangeMin="21" RangeMax="21">
          21 21 21 21 21 21
          21 21 21 21 21 21
          21 21 21 21 21 21
          21 21 21 21 21 21
          21
        </DataArray>
      </Cells>
    </Piece>
  </UnstructuredGrid>
</VTKFile>
